/*--------------------------------*- C++ -*----------------------------------*\
| =========                 |                                                 |
| \\      /  F ield         | OpenFOAM Extend Project: Open Source CFD        |
|  \\    /   O peration     | Version:  1.6-ext                               |
|   \\  /    A nd           | Web:      www.extend-project.de                 |
|    \\/     M anipulation  |                                                 |
\*---------------------------------------------------------------------------*/
FoamFile
{
    version     2.0;
    format      ascii;
    class       volScalarField;
    location    "0";
    object      T;
}
// * * * * * * * * * * * * * * * * * * * * * * * * * * * * * * * * * * * * * //

dimensions      [0 0 0 1 0 0 0];

internalField  uniform 300;

boundaryField
{
    welle_front
    {
        type            zeroGradient;
    }
    welle_back
    {
        type            zeroGradient;
    }
    welle_adiabat
    {
        type            zeroGradient;
    }
    blade_ht
    {
        type            compressible::turbulentTemperatureCoupledBaffleMixed;
        neighbourFieldName T;
        K               K;
        value           uniform 300;
    }
    cyclic_hub1
    {
        type            cyclicGgi;
        value           uniform 3000;
    }
    cyclic_hub2
    {
        type            cyclicGgi;
        value           uniform 300;
    }

}

// ************************************************************************* //
